+ 0 /NodeList/0/DeviceList/0/$ns3::PointToPointNetDevice/TxQueue/Enqueue ns3::PppHeader (Point-to-Point Protocol: IP (0x0021)) ns3::Ipv4Header (tos 0x0 DSCP Default ECN Not-ECT ttl 64 id 0 protocol 6 offset (bytes) 0 flags [none] length: 56 10.1.1.1 > 10.1.1.2) ns3::TcpHeader (49153 > 9 [SYN] Seq=0 Ack=0 Win=65535 ns3::TcpOptionTS(0;0) ns3::TcpOptionWinScale(2) ns3::TcpOptionSackPermitted([sack_perm]) ns3::TcpOptionEnd(EOL))
- 0 /NodeList/0/DeviceList/0/$ns3::PointToPointNetDevice/TxQueue/Dequeue ns3::PppHeader (Point-to-Point Protocol: IP (0x0021)) ns3::Ipv4Header (tos 0x0 DSCP Default ECN Not-ECT ttl 64 id 0 protocol 6 offset (bytes) 0 flags [none] length: 56 10.1.1.1 > 10.1.1.2) ns3::TcpHeader (49153 > 9 [SYN] Seq=0 Ack=0 Win=65535 ns3::TcpOptionTS(0;0) ns3::TcpOptionWinScale(2) ns3::TcpOptionSackPermitted([sack_perm]) ns3::TcpOptionEnd(EOL))
r 0.005928 /NodeList/1/DeviceList/0/$ns3::PointToPointNetDevice/MacRx ns3::PppHeader (Point-to-Point Protocol: IP (0x0021)) ns3::Ipv4Header (tos 0x0 DSCP Default ECN Not-ECT ttl 64 id 0 protocol 6 offset (bytes) 0 flags [none] length: 56 10.1.1.1 > 10.1.1.2) ns3::TcpHeader (49153 > 9 [SYN] Seq=0 Ack=0 Win=65535 ns3::TcpOptionTS(0;0) ns3::TcpOptionWinScale(2) ns3::TcpOptionSackPermitted([sack_perm]) ns3::TcpOptionEnd(EOL))
+ 0.005928 /NodeList/1/DeviceList/0/$ns3::PointToPointNetDevice/TxQueue/Enqueue ns3::PppHeader (Point-to-Point Protocol: IP (0x0021)) ns3::Ipv4Header (tos 0x0 DSCP Default ECN Not-ECT ttl 64 id 0 protocol 6 offset (bytes) 0 flags [none] length: 56 10.1.1.2 > 10.1.1.1) ns3::TcpHeader (9 > 49153 [SYN|ACK] Seq=0 Ack=1 Win=65535 ns3::TcpOptionTS(5;0) ns3::TcpOptionWinScale(2) ns3::TcpOptionSackPermitted([sack_perm]) ns3::TcpOptionEnd(EOL))
- 0.005928 /NodeList/1/DeviceList/0/$ns3::PointToPointNetDevice/TxQueue/Dequeue ns3::PppHeader (Point-to-Point Protocol: IP (0x0021)) ns3::Ipv4Header (tos 0x0 DSCP Default ECN Not-ECT ttl 64 id 0 protocol 6 offset (bytes) 0 flags [none] length: 56 10.1.1.2 > 10.1.1.1) ns3::TcpHeader (9 > 49153 [SYN|ACK] Seq=0 Ack=1 Win=65535 ns3::TcpOptionTS(5;0) ns3::TcpOptionWinScale(2) ns3::TcpOptionSackPermitted([sack_perm]) ns3::TcpOptionEnd(EOL))
r 0.011856 /NodeList/0/DeviceList/0/$ns3::PointToPointNetDevice/MacRx ns3::PppHeader (Point-to-Point Protocol: IP (0x0021)) ns3::Ipv4Header (tos 0x0 DSCP Default ECN Not-ECT ttl 64 id 0 protocol 6 offset (bytes) 0 flags [none] length: 56 10.1.1.2 > 10.1.1.1) ns3::TcpHeader (9 > 49153 [SYN|ACK] Seq=0 Ack=1 Win=65535 ns3::TcpOptionTS(5;0) ns3::TcpOptionWinScale(2) ns3::TcpOptionSackPermitted([sack_perm]) ns3::TcpOptionEnd(EOL))
+ 0.011856 /NodeList/0/DeviceList/0/$ns3::PointToPointNetDevice/TxQueue/Enqueue ns3::PppHeader (Point-to-Point Protocol: IP (0x0021)) ns3::Ipv4Header (tos 0x0 DSCP Default ECN Not-ECT ttl 64 id 1 protocol 6 offset (bytes) 0 flags [none] length: 52 10.1.1.1 > 10.1.1.2) ns3::TcpHeader (49153 > 9 [ACK] Seq=1 Ack=1 Win=32768 ns3::TcpOptionTS(11;5) ns3::TcpOptionEnd(EOL))
- 0.011856 /NodeList/0/DeviceList/0/$ns3::PointToPointNetDevice/TxQueue/Dequeue ns3::PppHeader (Point-to-Point Protocol: IP (0x0021)) ns3::Ipv4Header (tos 0x0 DSCP Default ECN Not-ECT ttl 64 id 1 protocol 6 offset (bytes) 0 flags [none] length: 52 10.1.1.1 > 10.1.1.2) ns3::TcpHeader (49153 > 9 [ACK] Seq=1 Ack=1 Win=32768 ns3::TcpOptionTS(11;5) ns3::TcpOptionEnd(EOL))
+ 0.011856 /NodeList/0/DeviceList/0/$ns3::PointToPointNetDevice/TxQueue/Enqueue ns3::PppHeader (Point-to-Point Protocol: IP (0x0021)) ns3::Ipv4Header (tos 0x0 DSCP Default ECN Not-ECT ttl 64 id 2 protocol 6 offset (bytes) 0 flags [none] length: 588 10.1.1.1 > 10.1.1.2) ns3::TcpHeader (49153 > 9 [ACK] Seq=1 Ack=1 Win=32768 ns3::TcpOptionTS(11;5) ns3::TcpOptionEnd(EOL)) Payload (size=512) Payload Fragment [0:24]
- 0.01272 /NodeList/0/DeviceList/0/$ns3::PointToPointNetDevice/TxQueue/Dequeue ns3::PppHeader (Point-to-Point Protocol: IP (0x0021)) ns3::Ipv4Header (tos 0x0 DSCP Default ECN Not-ECT ttl 64 id 2 protocol 6 offset (bytes) 0 flags [none] length: 588 10.1.1.1 > 10.1.1.2) ns3::TcpHeader (49153 > 9 [ACK] Seq=1 Ack=1 Win=32768 ns3::TcpOptionTS(11;5) ns3::TcpOptionEnd(EOL)) Payload (size=512) Payload Fragment [0:24]
r 0.01772 /NodeList/1/DeviceList/0/$ns3::PointToPointNetDevice/MacRx ns3::PppHeader (Point-to-Point Protocol: IP (0x0021)) ns3::Ipv4Header (tos 0x0 DSCP Default ECN Not-ECT ttl 64 id 1 protocol 6 offset (bytes) 0 flags [none] length: 52 10.1.1.1 > 10.1.1.2) ns3::TcpHeader (49153 > 9 [ACK] Seq=1 Ack=1 Win=32768 ns3::TcpOptionTS(11;5) ns3::TcpOptionEnd(EOL))
r 0.02716 /NodeList/1/DeviceList/0/$ns3::PointToPointNetDevice/MacRx ns3::PppHeader (Point-to-Point Protocol: IP (0x0021)) ns3::Ipv4Header (tos 0x0 DSCP Default ECN Not-ECT ttl 64 id 2 protocol 6 offset (bytes) 0 flags [none] length: 588 10.1.1.1 > 10.1.1.2) ns3::TcpHeader (49153 > 9 [ACK] Seq=1 Ack=1 Win=32768 ns3::TcpOptionTS(11;5) ns3::TcpOptionEnd(EOL)) Payload (size=512) Payload Fragment [0:24]
+ 0.02716 /NodeList/1/DeviceList/0/$ns3::PointToPointNetDevice/TxQueue/Enqueue ns3::PppHeader (Point-to-Point Protocol: IP (0x0021)) ns3::Ipv4Header (tos 0x0 DSCP Default ECN Not-ECT ttl 64 id 1 protocol 6 offset (bytes) 0 flags [none] length: 52 10.1.1.2 > 10.1.1.1) ns3::TcpHeader (9 > 49153 [ACK] Seq=1 Ack=537 Win=32768 ns3::TcpOptionTS(27;11) ns3::TcpOptionEnd(EOL))
- 0.02716 /NodeList/1/DeviceList/0/$ns3::PointToPointNetDevice/TxQueue/Dequeue ns3::PppHeader (Point-to-Point Protocol: IP (0x0021)) ns3::Ipv4Header (tos 0x0 DSCP Default ECN Not-ECT ttl 64 id 1 protocol 6 offset (bytes) 0 flags [none] length: 52 10.1.1.2 > 10.1.1.1) ns3::TcpHeader (9 > 49153 [ACK] Seq=1 Ack=537 Win=32768 ns3::TcpOptionTS(27;11) ns3::TcpOptionEnd(EOL))
r 0.033024 /NodeList/0/DeviceList/0/$ns3::PointToPointNetDevice/MacRx ns3::PppHeader (Point-to-Point Protocol: IP (0x0021)) ns3::Ipv4Header (tos 0x0 DSCP Default ECN Not-ECT ttl 64 id 1 protocol 6 offset (bytes) 0 flags [none] length: 52 10.1.1.2 > 10.1.1.1) ns3::TcpHeader (9 > 49153 [ACK] Seq=1 Ack=537 Win=32768 ns3::TcpOptionTS(27;11) ns3::TcpOptionEnd(EOL))
+ 0.033024 /NodeList/0/DeviceList/0/$ns3::PointToPointNetDevice/TxQueue/Enqueue ns3::PppHeader (Point-to-Point Protocol: IP (0x0021)) ns3::Ipv4Header (tos 0x0 DSCP Default ECN Not-ECT ttl 64 id 3 protocol 6 offset (bytes) 0 flags [none] length: 588 10.1.1.1 > 10.1.1.2) ns3::TcpHeader (49153 > 9 [ACK] Seq=537 Ack=1 Win=32768 ns3::TcpOptionTS(33;27) ns3::TcpOptionEnd(EOL)) Payload Fragment [24:512] Payload Fragment [0:48]
- 0.033024 /NodeList/0/DeviceList/0/$ns3::PointToPointNetDevice/TxQueue/Dequeue ns3::PppHeader (Point-to-Point Protocol: IP (0x0021)) ns3::Ipv4Header (tos 0x0 DSCP Default ECN Not-ECT ttl 64 id 3 protocol 6 offset (bytes) 0 flags [none] length: 588 10.1.1.1 > 10.1.1.2) ns3::TcpHeader (49153 > 9 [ACK] Seq=537 Ack=1 Win=32768 ns3::TcpOptionTS(33;27) ns3::TcpOptionEnd(EOL)) Payload Fragment [24:512] Payload Fragment [0:48]
+ 0.033024 /NodeList/0/DeviceList/0/$ns3::PointToPointNetDevice/TxQueue/Enqueue ns3::PppHeader (Point-to-Point Protocol: IP (0x0021)) ns3::Ipv4Header (tos 0x0 DSCP Default ECN Not-ECT ttl 64 id 4 protocol 6 offset (bytes) 0 flags [none] length: 588 10.1.1.1 > 10.1.1.2) ns3::TcpHeader (49153 > 9 [ACK] Seq=1073 Ack=1 Win=32768 ns3::TcpOptionTS(33;27) ns3::TcpOptionEnd(EOL)) Payload Fragment [48:512] Payload Fragment [0:72]
- 0.042464 /NodeList/0/DeviceList/0/$ns3::PointToPointNetDevice/TxQueue/Dequeue ns3::PppHeader (Point-to-Point Protocol: IP (0x0021)) ns3::Ipv4Header (tos 0x0 DSCP Default ECN Not-ECT ttl 64 id 4 protocol 6 offset (bytes) 0 flags [none] length: 588 10.1.1.1 > 10.1.1.2) ns3::TcpHeader (49153 > 9 [ACK] Seq=1073 Ack=1 Win=32768 ns3::TcpOptionTS(33;27) ns3::TcpOptionEnd(EOL)) Payload Fragment [48:512] Payload Fragment [0:72]
r 0.047464 /NodeList/1/DeviceList/0/$ns3::PointToPointNetDevice/MacRx ns3::PppHeader (Point-to-Point Protocol: IP (0x0021)) ns3::Ipv4Header (tos 0x0 DSCP Default ECN Not-ECT ttl 64 id 3 protocol 6 offset (bytes) 0 flags [none] length: 588 10.1.1.1 > 10.1.1.2) ns3::TcpHeader (49153 > 9 [ACK] Seq=537 Ack=1 Win=32768 ns3::TcpOptionTS(33;27) ns3::TcpOptionEnd(EOL)) Payload Fragment [24:512] Payload Fragment [0:48]
r 0.056904 /NodeList/1/DeviceList/0/$ns3::PointToPointNetDevice/MacRx ns3::PppHeader (Point-to-Point Protocol: IP (0x0021)) ns3::Ipv4Header (tos 0x0 DSCP Default ECN Not-ECT ttl 64 id 4 protocol 6 offset (bytes) 0 flags [none] length: 588 10.1.1.1 > 10.1.1.2) ns3::TcpHeader (49153 > 9 [ACK] Seq=1073 Ack=1 Win=32768 ns3::TcpOptionTS(33;27) ns3::TcpOptionEnd(EOL)) Payload Fragment [48:512] Payload Fragment [0:72]
+ 0.056904 /NodeList/1/DeviceList/0/$ns3::PointToPointNetDevice/TxQueue/Enqueue ns3::PppHeader (Point-to-Point Protocol: IP (0x0021)) ns3::Ipv4Header (tos 0x0 DSCP Default ECN Not-ECT ttl 64 id 2 protocol 6 offset (bytes) 0 flags [none] length: 52 10.1.1.2 > 10.1.1.1) ns3::TcpHeader (9 > 49153 [ACK] Seq=1 Ack=1609 Win=32768 ns3::TcpOptionTS(56;33) ns3::TcpOptionEnd(EOL))
- 0.056904 /NodeList/1/DeviceList/0/$ns3::PointToPointNetDevice/TxQueue/Dequeue ns3::PppHeader (Point-to-Point Protocol: IP (0x0021)) ns3::Ipv4Header (tos 0x0 DSCP Default ECN Not-ECT ttl 64 id 2 protocol 6 offset (bytes) 0 flags [none] length: 52 10.1.1.2 > 10.1.1.1) ns3::TcpHeader (9 > 49153 [ACK] Seq=1 Ack=1609 Win=32768 ns3::TcpOptionTS(56;33) ns3::TcpOptionEnd(EOL))
r 0.062768 /NodeList/0/DeviceList/0/$ns3::PointToPointNetDevice/MacRx ns3::PppHeader (Point-to-Point Protocol: IP (0x0021)) ns3::Ipv4Header (tos 0x0 DSCP Default ECN Not-ECT ttl 64 id 2 protocol 6 offset (bytes) 0 flags [none] length: 52 10.1.1.2 > 10.1.1.1) ns3::TcpHeader (9 > 49153 [ACK] Seq=1 Ack=1609 Win=32768 ns3::TcpOptionTS(56;33) ns3::TcpOptionEnd(EOL))
+ 0.062768 /NodeList/0/DeviceList/0/$ns3::PointToPointNetDevice/TxQueue/Enqueue ns3::PppHeader (Point-to-Point Protocol: IP (0x0021)) ns3::Ipv4Header (tos 0x0 DSCP Default ECN Not-ECT ttl 64 id 5 protocol 6 offset (bytes) 0 flags [none] length: 588 10.1.1.1 > 10.1.1.2) ns3::TcpHeader (49153 > 9 [ACK] Seq=1609 Ack=1 Win=32768 ns3::TcpOptionTS(62;56) ns3::TcpOptionEnd(EOL)) Payload Fragment [72:512] Payload Fragment [0:96]
- 0.062768 /NodeList/0/DeviceList/0/$ns3::PointToPointNetDevice/TxQueue/Dequeue ns3::PppHeader (Point-to-Point Protocol: IP (0x0021)) ns3::Ipv4Header (tos 0x0 DSCP Default ECN Not-ECT ttl 64 id 5 protocol 6 offset (bytes) 0 flags [none] length: 588 10.1.1.1 > 10.1.1.2) ns3::TcpHeader (49153 > 9 [ACK] Seq=1609 Ack=1 Win=32768 ns3::TcpOptionTS(62;56) ns3::TcpOptionEnd(EOL)) Payload Fragment [72:512] Payload Fragment [0:96]
+ 0.062768 /NodeList/0/DeviceList/0/$ns3::PointToPointNetDevice/TxQueue/Enqueue ns3::PppHeader (Point-to-Point Protocol: IP (0x0021)) ns3::Ipv4Header (tos 0x0 DSCP Default ECN Not-ECT ttl 64 id 6 protocol 6 offset (bytes) 0 flags [none] length: 588 10.1.1.1 > 10.1.1.2) ns3::TcpHeader (49153 > 9 [ACK] Seq=2145 Ack=1 Win=32768 ns3::TcpOptionTS(62;56) ns3::TcpOptionEnd(EOL)) Payload Fragment [96:512] Payload Fragment [0:120]
+ 0.062768 /NodeList/0/DeviceList/0/$ns3::PointToPointNetDevice/TxQueue/Enqueue ns3::PppHeader (Point-to-Point Protocol: IP (0x0021)) ns3::Ipv4Header (tos 0x0 DSCP Default ECN Not-ECT ttl 64 id 7 protocol 6 offset (bytes) 0 flags [none] length: 588 10.1.1.1 > 10.1.1.2) ns3::TcpHeader (49153 > 9 [ACK] Seq=2681 Ack=1 Win=32768 ns3::TcpOptionTS(62;56) ns3::TcpOptionEnd(EOL)) Payload Fragment [120:512] Payload Fragment [0:144]
- 0.072208 /NodeList/0/DeviceList/0/$ns3::PointToPointNetDevice/TxQueue/Dequeue ns3::PppHeader (Point-to-Point Protocol: IP (0x0021)) ns3::Ipv4Header (tos 0x0 DSCP Default ECN Not-ECT ttl 64 id 6 protocol 6 offset (bytes) 0 flags [none] length: 588 10.1.1.1 > 10.1.1.2) ns3::TcpHeader (49153 > 9 [ACK] Seq=2145 Ack=1 Win=32768 ns3::TcpOptionTS(62;56) ns3::TcpOptionEnd(EOL)) Payload Fragment [96:512] Payload Fragment [0:120]
r 0.077208 /NodeList/1/DeviceList/0/$ns3::PointToPointNetDevice/MacRx ns3::PppHeader (Point-to-Point Protocol: IP (0x0021)) ns3::Ipv4Header (tos 0x0 DSCP Default ECN Not-ECT ttl 64 id 5 protocol 6 offset (bytes) 0 flags [none] length: 588 10.1.1.1 > 10.1.1.2) ns3::TcpHeader (49153 > 9 [ACK] Seq=1609 Ack=1 Win=32768 ns3::TcpOptionTS(62;56) ns3::TcpOptionEnd(EOL)) Payload Fragment [72:512] Payload Fragment [0:96]
- 0.081648 /NodeList/0/DeviceList/0/$ns3::PointToPointNetDevice/TxQueue/Dequeue ns3::PppHeader (Point-to-Point Protocol: IP (0x0021)) ns3::Ipv4Header (tos 0x0 DSCP Default ECN Not-ECT ttl 64 id 7 protocol 6 offset (bytes) 0 flags [none] length: 588 10.1.1.1 > 10.1.1.2) ns3::TcpHeader (49153 > 9 [ACK] Seq=2681 Ack=1 Win=32768 ns3::TcpOptionTS(62;56) ns3::TcpOptionEnd(EOL)) Payload Fragment [120:512] Payload Fragment [0:144]
r 0.086648 /NodeList/1/DeviceList/0/$ns3::PointToPointNetDevice/MacRx ns3::PppHeader (Point-to-Point Protocol: IP (0x0021)) ns3::Ipv4Header (tos 0x0 DSCP Default ECN Not-ECT ttl 64 id 6 protocol 6 offset (bytes) 0 flags [none] length: 588 10.1.1.1 > 10.1.1.2) ns3::TcpHeader (49153 > 9 [ACK] Seq=2145 Ack=1 Win=32768 ns3::TcpOptionTS(62;56) ns3::TcpOptionEnd(EOL)) Payload Fragment [96:512] Payload Fragment [0:120]
+ 0.086648 /NodeList/1/DeviceList/0/$ns3::PointToPointNetDevice/TxQueue/Enqueue ns3::PppHeader (Point-to-Point Protocol: IP (0x0021)) ns3::Ipv4Header (tos 0x0 DSCP Default ECN Not-ECT ttl 64 id 3 protocol 6 offset (bytes) 0 flags [none] length: 52 10.1.1.2 > 10.1.1.1) ns3::TcpHeader (9 > 49153 [ACK] Seq=1 Ack=2681 Win=32768 ns3::TcpOptionTS(86;62) ns3::TcpOptionEnd(EOL))
- 0.086648 /NodeList/1/DeviceList/0/$ns3::PointToPointNetDevice/TxQueue/Dequeue ns3::PppHeader (Point-to-Point Protocol: IP (0x0021)) ns3::Ipv4Header (tos 0x0 DSCP Default ECN Not-ECT ttl 64 id 3 protocol 6 offset (bytes) 0 flags [none] length: 52 10.1.1.2 > 10.1.1.1) ns3::TcpHeader (9 > 49153 [ACK] Seq=1 Ack=2681 Win=32768 ns3::TcpOptionTS(86;62) ns3::TcpOptionEnd(EOL))
r 0.092512 /NodeList/0/DeviceList/0/$ns3::PointToPointNetDevice/MacRx ns3::PppHeader (Point-to-Point Protocol: IP (0x0021)) ns3::Ipv4Header (tos 0x0 DSCP Default ECN Not-ECT ttl 64 id 3 protocol 6 offset (bytes) 0 flags [none] length: 52 10.1.1.2 > 10.1.1.1) ns3::TcpHeader (9 > 49153 [ACK] Seq=1 Ack=2681 Win=32768 ns3::TcpOptionTS(86;62) ns3::TcpOptionEnd(EOL))
+ 0.092512 /NodeList/0/DeviceList/0/$ns3::PointToPointNetDevice/TxQueue/Enqueue ns3::PppHeader (Point-to-Point Protocol: IP (0x0021)) ns3::Ipv4Header (tos 0x0 DSCP Default ECN Not-ECT ttl 64 id 8 protocol 6 offset (bytes) 0 flags [none] length: 588 10.1.1.1 > 10.1.1.2) ns3::TcpHeader (49153 > 9 [ACK] Seq=3217 Ack=1 Win=32768 ns3::TcpOptionTS(92;86) ns3::TcpOptionEnd(EOL)) Payload Fragment [144:512] Payload Fragment [0:168]
- 0.092512 /NodeList/0/DeviceList/0/$ns3::PointToPointNetDevice/TxQueue/Dequeue ns3::PppHeader (Point-to-Point Protocol: IP (0x0021)) ns3::Ipv4Header (tos 0x0 DSCP Default ECN Not-ECT ttl 64 id 8 protocol 6 offset (bytes) 0 flags [none] length: 588 10.1.1.1 > 10.1.1.2) ns3::TcpHeader (49153 > 9 [ACK] Seq=3217 Ack=1 Win=32768 ns3::TcpOptionTS(92;86) ns3::TcpOptionEnd(EOL)) Payload Fragment [144:512] Payload Fragment [0:168]
+ 0.092512 /NodeList/0/DeviceList/0/$ns3::PointToPointNetDevice/TxQueue/Enqueue ns3::PppHeader (Point-to-Point Protocol: IP (0x0021)) ns3::Ipv4Header (tos 0x0 DSCP Default ECN Not-ECT ttl 64 id 9 protocol 6 offset (bytes) 0 flags [none] length: 588 10.1.1.1 > 10.1.1.2) ns3::TcpHeader (49153 > 9 [ACK] Seq=3753 Ack=1 Win=32768 ns3::TcpOptionTS(92;86) ns3::TcpOptionEnd(EOL)) Payload Fragment [168:512] Payload Fragment [0:192]
+ 0.092512 /NodeList/0/DeviceList/0/$ns3::PointToPointNetDevice/TxQueue/Enqueue ns3::PppHeader (Point-to-Point Protocol: IP (0x0021)) ns3::Ipv4Header (tos 0x0 DSCP Default ECN Not-ECT ttl 64 id 10 protocol 6 offset (bytes) 0 flags [none] length: 588 10.1.1.1 > 10.1.1.2) ns3::TcpHeader (49153 > 9 [ACK] Seq=4289 Ack=1 Win=32768 ns3::TcpOptionTS(92;86) ns3::TcpOptionEnd(EOL)) Payload Fragment [192:512] Payload Fragment [0:216]
r 0.096088 /NodeList/1/DeviceList/0/$ns3::PointToPointNetDevice/MacRx ns3::PppHeader (Point-to-Point Protocol: IP (0x0021)) ns3::Ipv4Header (tos 0x0 DSCP Default ECN Not-ECT ttl 64 id 7 protocol 6 offset (bytes) 0 flags [none] length: 588 10.1.1.1 > 10.1.1.2) ns3::TcpHeader (49153 > 9 [ACK] Seq=2681 Ack=1 Win=32768 ns3::TcpOptionTS(62;56) ns3::TcpOptionEnd(EOL)) Payload Fragment [120:512] Payload Fragment [0:144]
- 0.101952 /NodeList/0/DeviceList/0/$ns3::PointToPointNetDevice/TxQueue/Dequeue ns3::PppHeader (Point-to-Point Protocol: IP (0x0021)) ns3::Ipv4Header (tos 0x0 DSCP Default ECN Not-ECT ttl 64 id 9 protocol 6 offset (bytes) 0 flags [none] length: 588 10.1.1.1 > 10.1.1.2) ns3::TcpHeader (49153 > 9 [ACK] Seq=3753 Ack=1 Win=32768 ns3::TcpOptionTS(92;86) ns3::TcpOptionEnd(EOL)) Payload Fragment [168:512] Payload Fragment [0:192]
r 0.106952 /NodeList/1/DeviceList/0/$ns3::PointToPointNetDevice/MacRx ns3::PppHeader (Point-to-Point Protocol: IP (0x0021)) ns3::Ipv4Header (tos 0x0 DSCP Default ECN Not-ECT ttl 64 id 8 protocol 6 offset (bytes) 0 flags [none] length: 588 10.1.1.1 > 10.1.1.2) ns3::TcpHeader (49153 > 9 [ACK] Seq=3217 Ack=1 Win=32768 ns3::TcpOptionTS(92;86) ns3::TcpOptionEnd(EOL)) Payload Fragment [144:512] Payload Fragment [0:168]
+ 0.106952 /NodeList/1/DeviceList/0/$ns3::PointToPointNetDevice/TxQueue/Enqueue ns3::PppHeader (Point-to-Point Protocol: IP (0x0021)) ns3::Ipv4Header (tos 0x0 DSCP Default ECN Not-ECT ttl 64 id 4 protocol 6 offset (bytes) 0 flags [none] length: 52 10.1.1.2 > 10.1.1.1) ns3::TcpHeader (9 > 49153 [ACK] Seq=1 Ack=3753 Win=32768 ns3::TcpOptionTS(106;62) ns3::TcpOptionEnd(EOL))
- 0.106952 /NodeList/1/DeviceList/0/$ns3::PointToPointNetDevice/TxQueue/Dequeue ns3::PppHeader (Point-to-Point Protocol: IP (0x0021)) ns3::Ipv4Header (tos 0x0 DSCP Default ECN Not-ECT ttl 64 id 4 protocol 6 offset (bytes) 0 flags [none] length: 52 10.1.1.2 > 10.1.1.1) ns3::TcpHeader (9 > 49153 [ACK] Seq=1 Ack=3753 Win=32768 ns3::TcpOptionTS(106;62) ns3::TcpOptionEnd(EOL))
- 0.111392 /NodeList/0/DeviceList/0/$ns3::PointToPointNetDevice/TxQueue/Dequeue ns3::PppHeader (Point-to-Point Protocol: IP (0x0021)) ns3::Ipv4Header (tos 0x0 DSCP Default ECN Not-ECT ttl 64 id 10 protocol 6 offset (bytes) 0 flags [none] length: 588 10.1.1.1 > 10.1.1.2) ns3::TcpHeader (49153 > 9 [ACK] Seq=4289 Ack=1 Win=32768 ns3::TcpOptionTS(92;86) ns3::TcpOptionEnd(EOL)) Payload Fragment [192:512] Payload Fragment [0:216]
r 0.112816 /NodeList/0/DeviceList/0/$ns3::PointToPointNetDevice/MacRx ns3::PppHeader (Point-to-Point Protocol: IP (0x0021)) ns3::Ipv4Header (tos 0x0 DSCP Default ECN Not-ECT ttl 64 id 4 protocol 6 offset (bytes) 0 flags [none] length: 52 10.1.1.2 > 10.1.1.1) ns3::TcpHeader (9 > 49153 [ACK] Seq=1 Ack=3753 Win=32768 ns3::TcpOptionTS(106;62) ns3::TcpOptionEnd(EOL))
+ 0.112816 /NodeList/0/DeviceList/0/$ns3::PointToPointNetDevice/TxQueue/Enqueue ns3::PppHeader (Point-to-Point Protocol: IP (0x0021)) ns3::Ipv4Header (tos 0x0 DSCP Default ECN Not-ECT ttl 64 id 11 protocol 6 offset (bytes) 0 flags [none] length: 588 10.1.1.1 > 10.1.1.2) ns3::TcpHeader (49153 > 9 [ACK] Seq=4825 Ack=1 Win=32768 ns3::TcpOptionTS(112;106) ns3::TcpOptionEnd(EOL)) Payload Fragment [216:512] Payload Fragment [0:240]
+ 0.112816 /NodeList/0/DeviceList/0/$ns3::PointToPointNetDevice/TxQueue/Enqueue ns3::PppHeader (Point-to-Point Protocol: IP (0x0021)) ns3::Ipv4Header (tos 0x0 DSCP Default ECN Not-ECT ttl 64 id 12 protocol 6 offset (bytes) 0 flags [none] length: 588 10.1.1.1 > 10.1.1.2) ns3::TcpHeader (49153 > 9 [ACK] Seq=5361 Ack=1 Win=32768 ns3::TcpOptionTS(112;106) ns3::TcpOptionEnd(EOL)) Payload Fragment [240:512] Payload Fragment [0:264]
+ 0.112816 /NodeList/0/DeviceList/0/$ns3::PointToPointNetDevice/TxQueue/Enqueue ns3::PppHeader (Point-to-Point Protocol: IP (0x0021)) ns3::Ipv4Header (tos 0x0 DSCP Default ECN Not-ECT ttl 64 id 13 protocol 6 offset (bytes) 0 flags [none] length: 588 10.1.1.1 > 10.1.1.2) ns3::TcpHeader (49153 > 9 [ACK] Seq=5897 Ack=1 Win=32768 ns3::TcpOptionTS(112;106) ns3::TcpOptionEnd(EOL)) Payload Fragment [264:512] Payload Fragment [0:288]
r 0.116392 /NodeList/1/DeviceList/0/$ns3::PointToPointNetDevice/MacRx ns3::PppHeader (Point-to-Point Protocol: IP (0x0021)) ns3::Ipv4Header (tos 0x0 DSCP Default ECN Not-ECT ttl 64 id 9 protocol 6 offset (bytes) 0 flags [none] length: 588 10.1.1.1 > 10.1.1.2) ns3::TcpHeader (49153 > 9 [ACK] Seq=3753 Ack=1 Win=32768 ns3::TcpOptionTS(92;86) ns3::TcpOptionEnd(EOL)) Payload Fragment [168:512] Payload Fragment [0:192]
- 0.120832 /NodeList/0/DeviceList/0/$ns3::PointToPointNetDevice/TxQueue/Dequeue ns3::PppHeader (Point-to-Point Protocol: IP (0x0021)) ns3::Ipv4Header (tos 0x0 DSCP Default ECN Not-ECT ttl 64 id 11 protocol 6 offset (bytes) 0 flags [none] length: 588 10.1.1.1 > 10.1.1.2) ns3::TcpHeader (49153 > 9 [ACK] Seq=4825 Ack=1 Win=32768 ns3::TcpOptionTS(112;106) ns3::TcpOptionEnd(EOL)) Payload Fragment [216:512] Payload Fragment [0:240]
r 0.125832 /NodeList/1/DeviceList/0/$ns3::PointToPointNetDevice/MacRx ns3::PppHeader (Point-to-Point Protocol: IP (0x0021)) ns3::Ipv4Header (tos 0x0 DSCP Default ECN Not-ECT ttl 64 id 10 protocol 6 offset (bytes) 0 flags [none] length: 588 10.1.1.1 > 10.1.1.2) ns3::TcpHeader (49153 > 9 [ACK] Seq=4289 Ack=1 Win=32768 ns3::TcpOptionTS(92;86) ns3::TcpOptionEnd(EOL)) Payload Fragment [192:512] Payload Fragment [0:216]
+ 0.125832 /NodeList/1/DeviceList/0/$ns3::PointToPointNetDevice/TxQueue/Enqueue ns3::PppHeader (Point-to-Point Protocol: IP (0x0021)) ns3::Ipv4Header (tos 0x0 DSCP Default ECN Not-ECT ttl 64 id 5 protocol 6 offset (bytes) 0 flags [none] length: 52 10.1.1.2 > 10.1.1.1) ns3::TcpHeader (9 > 49153 [ACK] Seq=1 Ack=4825 Win=32768 ns3::TcpOptionTS(125;92) ns3::TcpOptionEnd(EOL))
- 0.125832 /NodeList/1/DeviceList/0/$ns3::PointToPointNetDevice/TxQueue/Dequeue ns3::PppHeader (Point-to-Point Protocol: IP (0x0021)) ns3::Ipv4Header (tos 0x0 DSCP Default ECN Not-ECT ttl 64 id 5 protocol 6 offset (bytes) 0 flags [none] length: 52 10.1.1.2 > 10.1.1.1) ns3::TcpHeader (9 > 49153 [ACK] Seq=1 Ack=4825 Win=32768 ns3::TcpOptionTS(125;92) ns3::TcpOptionEnd(EOL))
- 0.130272 /NodeList/0/DeviceList/0/$ns3::PointToPointNetDevice/TxQueue/Dequeue ns3::PppHeader (Point-to-Point Protocol: IP (0x0021)) ns3::Ipv4Header (tos 0x0 DSCP Default ECN Not-ECT ttl 64 id 12 protocol 6 offset (bytes) 0 flags [none] length: 588 10.1.1.1 > 10.1.1.2) ns3::TcpHeader (49153 > 9 [ACK] Seq=5361 Ack=1 Win=32768 ns3::TcpOptionTS(112;106) ns3::TcpOptionEnd(EOL)) Payload Fragment [240:512] Payload Fragment [0:264]
r 0.131696 /NodeList/0/DeviceList/0/$ns3::PointToPointNetDevice/MacRx ns3::PppHeader (Point-to-Point Protocol: IP (0x0021)) ns3::Ipv4Header (tos 0x0 DSCP Default ECN Not-ECT ttl 64 id 5 protocol 6 offset (bytes) 0 flags [none] length: 52 10.1.1.2 > 10.1.1.1) ns3::TcpHeader (9 > 49153 [ACK] Seq=1 Ack=4825 Win=32768 ns3::TcpOptionTS(125;92) ns3::TcpOptionEnd(EOL))
+ 0.131696 /NodeList/0/DeviceList/0/$ns3::PointToPointNetDevice/TxQueue/Enqueue ns3::PppHeader (Point-to-Point Protocol: IP (0x0021)) ns3::Ipv4Header (tos 0x0 DSCP Default ECN Not-ECT ttl 64 id 14 protocol 6 offset (bytes) 0 flags [none] length: 588 10.1.1.1 > 10.1.1.2) ns3::TcpHeader (49153 > 9 [ACK] Seq=6433 Ack=1 Win=32768 ns3::TcpOptionTS(131;125) ns3::TcpOptionEnd(EOL)) Payload Fragment [288:512] Payload Fragment [0:312]
+ 0.131696 /NodeList/0/DeviceList/0/$ns3::PointToPointNetDevice/TxQueue/Enqueue ns3::PppHeader (Point-to-Point Protocol: IP (0x0021)) ns3::Ipv4Header (tos 0x0 DSCP Default ECN Not-ECT ttl 64 id 15 protocol 6 offset (bytes) 0 flags [none] length: 588 10.1.1.1 > 10.1.1.2) ns3::TcpHeader (49153 > 9 [ACK] Seq=6969 Ack=1 Win=32768 ns3::TcpOptionTS(131;125) ns3::TcpOptionEnd(EOL)) Payload Fragment [312:512] Payload Fragment [0:336]
+ 0.131696 /NodeList/0/DeviceList/0/$ns3::PointToPointNetDevice/TxQueue/Enqueue ns3::PppHeader (Point-to-Point Protocol: IP (0x0021)) ns3::Ipv4Header (tos 0x0 DSCP Default ECN Not-ECT ttl 64 id 16 protocol 6 offset (bytes) 0 flags [none] length: 588 10.1.1.1 > 10.1.1.2) ns3::TcpHeader (49153 > 9 [ACK] Seq=7505 Ack=1 Win=32768 ns3::TcpOptionTS(131;125) ns3::TcpOptionEnd(EOL)) Payload Fragment [336:512] Payload Fragment [0:360]
r 0.135272 /NodeList/1/DeviceList/0/$ns3::PointToPointNetDevice/MacRx ns3::PppHeader (Point-to-Point Protocol: IP (0x0021)) ns3::Ipv4Header (tos 0x0 DSCP Default ECN Not-ECT ttl 64 id 11 protocol 6 offset (bytes) 0 flags [none] length: 588 10.1.1.1 > 10.1.1.2) ns3::TcpHeader (49153 > 9 [ACK] Seq=4825 Ack=1 Win=32768 ns3::TcpOptionTS(112;106) ns3::TcpOptionEnd(EOL)) Payload Fragment [216:512] Payload Fragment [0:240]
- 0.139712 /NodeList/0/DeviceList/0/$ns3::PointToPointNetDevice/TxQueue/Dequeue ns3::PppHeader (Point-to-Point Protocol: IP (0x0021)) ns3::Ipv4Header (tos 0x0 DSCP Default ECN Not-ECT ttl 64 id 13 protocol 6 offset (bytes) 0 flags [none] length: 588 10.1.1.1 > 10.1.1.2) ns3::TcpHeader (49153 > 9 [ACK] Seq=5897 Ack=1 Win=32768 ns3::TcpOptionTS(112;106) ns3::TcpOptionEnd(EOL)) Payload Fragment [264:512] Payload Fragment [0:288]
r 0.144712 /NodeList/1/DeviceList/0/$ns3::PointToPointNetDevice/MacRx ns3::PppHeader (Point-to-Point Protocol: IP (0x0021)) ns3::Ipv4Header (tos 0x0 DSCP Default ECN Not-ECT ttl 64 id 12 protocol 6 offset (bytes) 0 flags [none] length: 588 10.1.1.1 > 10.1.1.2) ns3::TcpHeader (49153 > 9 [ACK] Seq=5361 Ack=1 Win=32768 ns3::TcpOptionTS(112;106) ns3::TcpOptionEnd(EOL)) Payload Fragment [240:512] Payload Fragment [0:264]
+ 0.144712 /NodeList/1/DeviceList/0/$ns3::PointToPointNetDevice/TxQueue/Enqueue ns3::PppHeader (Point-to-Point Protocol: IP (0x0021)) ns3::Ipv4Header (tos 0x0 DSCP Default ECN Not-ECT ttl 64 id 6 protocol 6 offset (bytes) 0 flags [none] length: 52 10.1.1.2 > 10.1.1.1) ns3::TcpHeader (9 > 49153 [ACK] Seq=1 Ack=5897 Win=32768 ns3::TcpOptionTS(144;112) ns3::TcpOptionEnd(EOL))
- 0.144712 /NodeList/1/DeviceList/0/$ns3::PointToPointNetDevice/TxQueue/Dequeue ns3::PppHeader (Point-to-Point Protocol: IP (0x0021)) ns3::Ipv4Header (tos 0x0 DSCP Default ECN Not-ECT ttl 64 id 6 protocol 6 offset (bytes) 0 flags [none] length: 52 10.1.1.2 > 10.1.1.1) ns3::TcpHeader (9 > 49153 [ACK] Seq=1 Ack=5897 Win=32768 ns3::TcpOptionTS(144;112) ns3::TcpOptionEnd(EOL))
- 0.149152 /NodeList/0/DeviceList/0/$ns3::PointToPointNetDevice/TxQueue/Dequeue ns3::PppHeader (Point-to-Point Protocol: IP (0x0021)) ns3::Ipv4Header (tos 0x0 DSCP Default ECN Not-ECT ttl 64 id 14 protocol 6 offset (bytes) 0 flags [none] length: 588 10.1.1.1 > 10.1.1.2) ns3::TcpHeader (49153 > 9 [ACK] Seq=6433 Ack=1 Win=32768 ns3::TcpOptionTS(131;125) ns3::TcpOptionEnd(EOL)) Payload Fragment [288:512] Payload Fragment [0:312]
r 0.150576 /NodeList/0/DeviceList/0/$ns3::PointToPointNetDevice/MacRx ns3::PppHeader (Point-to-Point Protocol: IP (0x0021)) ns3::Ipv4Header (tos 0x0 DSCP Default ECN Not-ECT ttl 64 id 6 protocol 6 offset (bytes) 0 flags [none] length: 52 10.1.1.2 > 10.1.1.1) ns3::TcpHeader (9 > 49153 [ACK] Seq=1 Ack=5897 Win=32768 ns3::TcpOptionTS(144;112) ns3::TcpOptionEnd(EOL))
+ 0.150576 /NodeList/0/DeviceList/0/$ns3::PointToPointNetDevice/TxQueue/Enqueue ns3::PppHeader (Point-to-Point Protocol: IP (0x0021)) ns3::Ipv4Header (tos 0x0 DSCP Default ECN Not-ECT ttl 64 id 17 protocol 6 offset (bytes) 0 flags [none] length: 588 10.1.1.1 > 10.1.1.2) ns3::TcpHeader (49153 > 9 [ACK] Seq=8041 Ack=1 Win=32768 ns3::TcpOptionTS(150;144) ns3::TcpOptionEnd(EOL)) Payload Fragment [360:512] Payload Fragment [0:384]
+ 0.150576 /NodeList/0/DeviceList/0/$ns3::PointToPointNetDevice/TxQueue/Enqueue ns3::PppHeader (Point-to-Point Protocol: IP (0x0021)) ns3::Ipv4Header (tos 0x0 DSCP Default ECN Not-ECT ttl 64 id 18 protocol 6 offset (bytes) 0 flags [none] length: 588 10.1.1.1 > 10.1.1.2) ns3::TcpHeader (49153 > 9 [ACK] Seq=8577 Ack=1 Win=32768 ns3::TcpOptionTS(150;144) ns3::TcpOptionEnd(EOL)) Payload Fragment [384:512] Payload Fragment [0:408]
+ 0.150576 /NodeList/0/DeviceList/0/$ns3::PointToPointNetDevice/TxQueue/Enqueue ns3::PppHeader (Point-to-Point Protocol: IP (0x0021)) ns3::Ipv4Header (tos 0x0 DSCP Default ECN Not-ECT ttl 64 id 19 protocol 6 offset (bytes) 0 flags [none] length: 588 10.1.1.1 > 10.1.1.2) ns3::TcpHeader (49153 > 9 [ACK] Seq=9113 Ack=1 Win=32768 ns3::TcpOptionTS(150;144) ns3::TcpOptionEnd(EOL)) Payload Fragment [408:512] Payload Fragment [0:432]
r 0.154152 /NodeList/1/DeviceList/0/$ns3::PointToPointNetDevice/MacRx ns3::PppHeader (Point-to-Point Protocol: IP (0x0021)) ns3::Ipv4Header (tos 0x0 DSCP Default ECN Not-ECT ttl 64 id 13 protocol 6 offset (bytes) 0 flags [none] length: 588 10.1.1.1 > 10.1.1.2) ns3::TcpHeader (49153 > 9 [ACK] Seq=5897 Ack=1 Win=32768 ns3::TcpOptionTS(112;106) ns3::TcpOptionEnd(EOL)) Payload Fragment [264:512] Payload Fragment [0:288]
- 0.158592 /NodeList/0/DeviceList/0/$ns3::PointToPointNetDevice/TxQueue/Dequeue ns3::PppHeader (Point-to-Point Protocol: IP (0x0021)) ns3::Ipv4Header (tos 0x0 DSCP Default ECN Not-ECT ttl 64 id 15 protocol 6 offset (bytes) 0 flags [none] length: 588 10.1.1.1 > 10.1.1.2) ns3::TcpHeader (49153 > 9 [ACK] Seq=6969 Ack=1 Win=32768 ns3::TcpOptionTS(131;125) ns3::TcpOptionEnd(EOL)) Payload Fragment [312:512] Payload Fragment [0:336]
r 0.163592 /NodeList/1/DeviceList/0/$ns3::PointToPointNetDevice/MacRx ns3::PppHeader (Point-to-Point Protocol: IP (0x0021)) ns3::Ipv4Header (tos 0x0 DSCP Default ECN Not-ECT ttl 64 id 14 protocol 6 offset (bytes) 0 flags [none] length: 588 10.1.1.1 > 10.1.1.2) ns3::TcpHeader (49153 > 9 [ACK] Seq=6433 Ack=1 Win=32768 ns3::TcpOptionTS(131;125) ns3::TcpOptionEnd(EOL)) Payload Fragment [288:512] Payload Fragment [0:312]
+ 0.163592 /NodeList/1/DeviceList/0/$ns3::PointToPointNetDevice/TxQueue/Enqueue ns3::PppHeader (Point-to-Point Protocol: IP (0x0021)) ns3::Ipv4Header (tos 0x0 DSCP Default ECN Not-ECT ttl 64 id 7 protocol 6 offset (bytes) 0 flags [none] length: 52 10.1.1.2 > 10.1.1.1) ns3::TcpHeader (9 > 49153 [ACK] Seq=1 Ack=6969 Win=32768 ns3::TcpOptionTS(163;112) ns3::TcpOptionEnd(EOL))